 Gaussian 16, Revision C.01,
 Gaussian 16:  ES64L-G16RevC.01  3-Jul-2019

 -------------------------------------------------
 # M062X/Def2TZVP freq=noraman opt=(maxcycles=100)
 -------------------------------------------------

 -----------
 H2_def2TZVP
 -----------
 Symbolic Z-matrix:
 Charge =  0 Multiplicity = 2

 SCF Done:  E(UM062X) = -0.498138511711     A.U. after    6 cycles
 Optimization completed.
    -- Stationary point found.
 Normal termination of Gaussian 16 at Wed Nov 24 01:57:07 2021.

 --------------------------------------------------------------------
 #N Geom=AllCheck Guess=TCheck SCRF=Check GenChk UM062X/def2TZVP Freq
 --------------------------------------------------------------------

 Structure from the checkpoint file:  "/gpfs/summit/scratch/jvalegre@colostate.edu/9185521/Gau-253429.chk"
 -----------
 H2_def2TZVP
 -----------
 Charge =  0 Multiplicity = 2

                         Standard orientation:
 ---------------------------------------------------------------------
 Center     Atomic      Atomic             Coordinates (Angstroms)
 Number     Number       Type             X           Y           Z
 ---------------------------------------------------------------------
      1          1           0        0.000000    0.000000    0.000000
 ---------------------------------------------------------------------

 SCF Done:  E(UM062X) = -0.498138511711     A.U. after    1 cycles

 The electronic state is 2-A1G.
 Alpha  occ. eigenvalues --   -0.37890
 Alpha virt. eigenvalues --    0.32072   1.41171   1.41171   1.41171   2.10941
  Beta virt. eigenvalues --   -0.55498   0.10360   1.01516   1.01516   1.01516
  Beta virt. eigenvalues --    2.04235

 Mulliken charges and spin densities:
               1          2
     1  H    0.000000   1.000000
 Sum of Mulliken charges =   0.00000   1.00000

 Dipole moment (field-independent basis, Debye):
    X=              0.0000    Y=              0.0000    Z=              0.0000  Tot=              0.0000
 Quadrupole moment (field-independent basis, Debye-Ang):
   XX=             -1.4123   YY=             -1.4123   ZZ=             -1.4123
   XY=              0.0000   XZ=              0.0000   YZ=              0.0000

  Exact polarizability:       0.504      -0.000       0.504      -0.000       0.000       0.504
 Approx polarizability:       0.437      -0.000       0.437      -0.000      -0.000       0.437

 - Thermochemistry -
 -------------------
 Temperature   298.150 Kelvin.  Pressure   1.00000 Atm.
 Atom     1 has atomic number  1 and mass   1.00783
 Molecular mass:     1.00783 amu.
 Zero-point vibrational energy          0.0 (Joules/Mol)
                                    0.00000 (Kcal/Mol)
 Vibrational temperatures:
          (Kelvin)

 Zero-point correction=                           0.000000 (Hartree/Particle)
 Thermal correction to Energy=                    0.001416
 Thermal correction to Enthalpy=                  0.002360
 Thermal correction to Gibbs Free Energy=        -0.010654
 Sum of electronic and zero-point Energies=             -0.498139
 Sum of electronic and thermal Energies=                -0.496722
 Sum of electronic and thermal Enthalpies=              -0.495778
 Sum of electronic and thermal Free Energies=           -0.508793

                     E (Thermal)             CV                S
                      KCal/Mol        Cal/Mol-Kelvin    Cal/Mol-Kelvin
 Total                    0.889              2.981             27.392
 Electronic               0.000              0.000              1.377
 Translational            0.889              2.981             26.014
 Rotational               0.000              0.000              0.000
 Vibrational              0.000              0.000              0.000

 Optimization completed.
    -- Stationary point found.
 Normal termination of Gaussian 16 at Wed Nov 24 01:57:10 2021.
