                         Program Version 5.0.3 -  RELEASE  -
|  1> # T1_TS-I-C_5_1
|  2> %maxcore 10000
|  3> %pal nprocs 12 end
|  4> ! wb97x-d3 6-31g(d,p) OPTTS NormalPNO TightSCF FREQ DEFGRID3 CPCM(CH2CL2)
|  5> %geom
|  6> Calc_Hess true
|  7> end
|  8> * xyz 0 3
|  9>  C  -4.31681400   1.76330800  -0.37387000
| 10>  C  -2.91609700   1.60409700  -0.40109900
| 11>  C  -2.11796100   2.76424100  -0.47168400
| 12>  C  -2.70583300   4.02345600  -0.53052000
| 13>  C  -4.09443300   4.16330400  -0.51143500
| 14>  C  -4.89770400   3.02438300  -0.43124600
| 15>  C  -2.39187600   0.25236400  -0.28816900
| 16>  C  -1.07205800  -0.19070900  -0.64034300
| 17>  C  -0.75249300  -1.59667300  -0.67147900
| 18>  S   0.93967400  -1.81717600  -1.01076900
| 19>  C   1.11242700  -0.06481800  -1.02203900
| 20>  N  -0.00962400   0.60547000  -0.84913200
| 21>  C   2.40059900   0.58149300  -1.19417900
| 22>  C   2.44798100   1.98251000  -1.30670300
| 23>  C   3.66873100   2.62857700  -1.43995300
| 24>  C   4.85415200   1.89123300  -1.45621600
| 25>  C   4.81567000   0.50092100  -1.34145500
| 26>  C   3.59786300  -0.15307700  -1.21111400
| 27>  O  -1.62734800  -2.51799300  -0.51517400
| 28>  H  -4.54583800   5.14966000  -0.55714800
| 29>  H  -4.94816900   0.88072200  -0.31214700
| 30>  H   3.58948500  -1.23450500  -1.10865200
| 31>  H   5.73585200  -0.07382600  -1.34930000
| 32>  H   5.80785500   2.39965800  -1.55787800
| 33>  H   3.69827300   3.70966700  -1.52928200
| 34>  H   1.52382300   2.54918800  -1.28850900
| 35>  H  -1.03896400   2.67158300  -0.48270400
| 36>  H  -2.07321300   4.90447200  -0.58863100
| 37>  H  -5.97929000   3.11966200  -0.41472900
| 38>  H  -3.13535400  -0.53863200  -0.31357600
| 39>  B  -1.30987300  -3.99983900  -0.33350000
| 40>  F  -2.53619300  -4.64154900  -0.32657400
| 41>  F  -0.50548800  -4.41105900  -1.39771000
| 42>  F  -0.63647700  -4.14416600   0.88058400
| 43>  C  -0.79119200  -0.60904600   2.16627600
| 44>  C  -2.00537600   0.02209700   1.93910800
| 45>  H  -2.91753900  -0.55517000   2.04374300
| 46>  H  -2.10584000   1.09677200   2.04244800
| 47>  H  -0.79042100  -1.69398800   2.24438600
| 48>  C   0.49989200   0.03418300   2.25109600
| 49>  C   1.64831200  -0.77500100   2.39332800
| 50>  C   0.67761500   1.43261200   2.15207300
| 51>  C   2.91821700  -0.21503300   2.42384800
| 52>  H   1.52678000  -1.85237100   2.46737800
| 53>  C   1.94836100   1.98693800   2.18652400
| 54>  H  -0.18059600   2.08598900   2.03380700
| 55>  C   3.07416200   1.16826900   2.31597200
| 56>  H   3.78917500  -0.85554700   2.52201800
| 57>  H   2.06816800   3.06242200   2.09973200
| 58>  H   4.06710100   1.60710200   2.32714500
| 59> **                         ****END OF INPUT****
 Total Charge           Charge          ....    0
 Multiplicity           Mult            ....    3
 Number of Electrons    NEL             ....  226
Dispersion correction           -0.033642737
FINAL SINGLE POINT ENERGY     -1778.296854675924
Dispersion correction            ... done
Dispersion correction in the Hessian             ... done   (      1.1 sec)
Dispersion correction           -0.034128448
FINAL SINGLE POINT ENERGY     -1778.298989092372
Dispersion correction            ... done
                    ***********************HURRAY********************

CARTESIAN COORDINATES (ANGSTROEM)
---------------------------------
  C     -4.315259    1.793902   -0.427143
  C     -2.916603    1.621800   -0.421126
  C     -2.106350    2.775284   -0.441775
  C     -2.680691    4.039933   -0.483958
  C     -4.067147    4.192222   -0.499693
  C     -4.882314    3.060433   -0.469294
  C     -2.403287    0.265307   -0.324464
  C     -1.075950   -0.175675   -0.682460
  C     -0.747515   -1.582879   -0.694636
  S      0.944953   -1.792635   -1.045066
  C      1.102084   -0.047945   -1.080684
  N     -0.025983    0.623724   -0.912414
  C      2.385072    0.611664   -1.240716
  C      2.422491    2.014520   -1.318806
  C      3.638899    2.672078   -1.423983
  C      4.828626    1.943051   -1.448315
  C      4.799790    0.550477   -1.370368
  C      3.586434   -0.114605   -1.266811
  O     -1.601539   -2.504877   -0.485087
  H     -4.508685    5.184025   -0.531952
  H     -4.955373    0.915206   -0.401893
  H      3.578716   -1.198723   -1.190383
  H      5.725141   -0.016501   -1.385042
  H      5.780066    2.460866   -1.526200
  H      3.662501    3.755765   -1.483554
  H      1.491155    2.569916   -1.291321
  H     -1.027985    2.669159   -0.424682
  H     -2.038475    4.916230   -0.501559
  H     -5.963472    3.166078   -0.478711
  H     -3.146252   -0.525785   -0.371578
  B     -1.202802   -3.955319   -0.084616
  F     -2.335670   -4.704062   -0.278012
  F     -0.149469   -4.336034   -0.906291
  F     -0.810944   -3.890701    1.245342
  C     -0.836305   -0.655508    2.116545
  C     -2.031318    0.005492    1.912913
  H     -2.960289   -0.546678    2.005351
  H     -2.102787    1.081580    2.030001
  H     -0.853400   -1.743191    2.147324
  C      0.471566   -0.035152    2.209440
  C      1.605166   -0.865681    2.311720
  C      0.668359    1.359909    2.151680
  C      2.884499   -0.326939    2.341637
  H      1.463331   -1.943317    2.345691
  C      1.947861    1.894099    2.184150
  H     -0.184559    2.026644    2.063576
  C      3.060803    1.055082    2.274137
  H      3.746629   -0.984141    2.406432
  H      2.083187    2.970148    2.126933
  H      4.061200    1.477930    2.282270

 Multiplicity           Mult            ....    3
 Number of Electrons    NEL             ....  226
 Basis Dimension        Dim             ....  533

ORBITAL ENERGIES
----------------
                 SPIN UP ORBITALS
  NO   OCC          E(Eh)            E(eV)
   0   1.0000     -89.012125     -2422.1431
   1   1.0000     -24.756081      -673.6472
   2   1.0000     -24.752595      -673.5524
   3   1.0000     -24.749116      -673.4577
   4   1.0000     -19.305288      -525.3236
   5   1.0000     -14.468396      -393.7051
   6   1.0000     -10.428420      -283.7717
   7   1.0000     -10.400111      -283.0014
   8   1.0000     -10.374469      -282.3036
   9   1.0000     -10.325527      -280.9719
  10   1.0000     -10.322796      -280.8976
  11   1.0000     -10.317850      -280.7630
  12   1.0000     -10.314739      -280.6783
  13   1.0000     -10.310889      -280.5736
  14   1.0000     -10.310779      -280.5706
  15   1.0000     -10.309515      -280.5362
  16   1.0000     -10.308510      -280.5088
  17   1.0000     -10.307645      -280.4853
  18   1.0000     -10.303990      -280.3858
  19   1.0000     -10.303031      -280.3597
  20   1.0000     -10.299270      -280.2574
  21   1.0000     -10.298587      -280.2388
  22   1.0000     -10.298558      -280.2380
  23   1.0000     -10.294746      -280.1343
  24   1.0000     -10.294551      -280.1290
  25   1.0000     -10.293737      -280.1068
  26   1.0000     -10.292485      -280.0727
  27   1.0000     -10.291346      -280.0418
  28   1.0000     -10.291191      -280.0376
  29   1.0000     -10.290256      -280.0121
  30   1.0000      -8.108877      -220.6538
  31   1.0000      -6.956643      -189.2999
  32   1.0000      -6.062752      -164.9759
  33   1.0000      -6.058980      -164.8732
  34   1.0000      -6.054958      -164.7638
  35   1.0000      -1.303065       -35.4582
  36   1.0000      -1.257529       -34.2191
  37   1.0000      -1.255201       -34.1558
  38   1.0000      -1.215473       -33.0747
  39   1.0000      -1.121592       -30.5201
  40   1.0000      -0.999512       -27.1981
  41   1.0000      -0.987456       -26.8701
  42   1.0000      -0.982943       -26.7472
  43   1.0000      -0.947263       -25.7763
  44   1.0000      -0.932881       -25.3850
  45   1.0000      -0.917997       -24.9800
  46   1.0000      -0.899394       -24.4738
  47   1.0000      -0.879167       -23.9233
  48   1.0000      -0.868518       -23.6336
  49   1.0000      -0.864011       -23.5109
  50   1.0000      -0.861370       -23.4391
  51   1.0000      -0.848422       -23.0867
  52   1.0000      -0.799663       -21.7599
  53   1.0000      -0.766618       -20.8607
  54   1.0000      -0.745900       -20.2970
  55   1.0000      -0.737710       -20.0741
  56   1.0000      -0.721931       -19.6447
  57   1.0000      -0.717542       -19.5253
  58   1.0000      -0.711927       -19.3725
  59   1.0000      -0.699777       -19.0419
  60   1.0000      -0.679734       -18.4965
  61   1.0000      -0.675044       -18.3689
  62   1.0000      -0.657612       -17.8945
  63   1.0000      -0.641523       -17.4567
  64   1.0000      -0.625108       -17.0101
  65   1.0000      -0.621638       -16.9156
  66   1.0000      -0.618455       -16.8290
  67   1.0000      -0.608874       -16.5683
  68   1.0000      -0.596833       -16.2406
  69   1.0000      -0.588300       -16.0085
  70   1.0000      -0.583206       -15.8698
  71   1.0000      -0.580872       -15.8063
  72   1.0000      -0.576861       -15.6972
  73   1.0000      -0.563506       -15.3338
  74   1.0000      -0.559616       -15.2279
  75   1.0000      -0.556153       -15.1337
  76   1.0000      -0.542977       -14.7752
  77   1.0000      -0.542055       -14.7501
  78   1.0000      -0.535360       -14.5679
  79   1.0000      -0.532454       -14.4888
  80   1.0000      -0.529780       -14.4160
  81   1.0000      -0.521089       -14.1796
  82   1.0000      -0.519621       -14.1396
  83   1.0000      -0.515209       -14.0196
  84   1.0000      -0.511568       -13.9205
  85   1.0000      -0.502297       -13.6682
  86   1.0000      -0.500206       -13.6113
  87   1.0000      -0.498508       -13.5651
  88   1.0000      -0.494084       -13.4447
  89   1.0000      -0.491498       -13.3744
  90   1.0000      -0.482893       -13.1402
  91   1.0000      -0.482209       -13.1216
  92   1.0000      -0.472724       -12.8635
  93   1.0000      -0.470284       -12.7971
  94   1.0000      -0.462365       -12.5816
  95   1.0000      -0.458055       -12.4643
  96   1.0000      -0.451007       -12.2725
  97   1.0000      -0.449621       -12.2348
  98   1.0000      -0.447670       -12.1817
  99   1.0000      -0.443533       -12.0691
 100   1.0000      -0.441108       -12.0032
 101   1.0000      -0.432265       -11.7625
 102   1.0000      -0.430485       -11.7141
 103   1.0000      -0.427905       -11.6439
 104   1.0000      -0.398320       -10.8388
 105   1.0000      -0.386144       -10.5075
 106   1.0000      -0.379220       -10.3191
 107   1.0000      -0.370662       -10.0862
 108   1.0000      -0.358155        -9.7459
 109   1.0000      -0.343525        -9.3478
 110   1.0000      -0.341340        -9.2883
 111   1.0000      -0.332510        -9.0481
 112   1.0000      -0.294952        -8.0260
 113   1.0000      -0.249163        -6.7801
 114   0.0000      -0.006790        -0.1848
 115   0.0000       0.029408         0.8002
 116   0.0000       0.057301         1.5593
 117   0.0000       0.067062         1.8249
 118   0.0000       0.070892         1.9291

                 SPIN DOWN ORBITALS
  NO   OCC          E(Eh)            E(eV)
   0   1.0000     -89.012494     -2422.1531
   1   1.0000     -24.756093      -673.6475
   2   1.0000     -24.752466      -673.5488
   3   1.0000     -24.749115      -673.4577
   4   1.0000     -19.301602      -525.2233
   5   1.0000     -14.469232      -393.7278
   6   1.0000     -10.425599      -283.6950
   7   1.0000     -10.396916      -282.9145
   8   1.0000     -10.372045      -282.2377
   9   1.0000     -10.326332      -280.9938
  10   1.0000     -10.317806      -280.7618
  11   1.0000     -10.317128      -280.7433
  12   1.0000     -10.313727      -280.6508
  13   1.0000     -10.309866      -280.5457
  14   1.0000     -10.309552      -280.5372
  15   1.0000     -10.309020      -280.5227
  16   1.0000     -10.308452      -280.5072
  17   1.0000     -10.306837      -280.4633
  18   1.0000     -10.304589      -280.4021
  19   1.0000     -10.303641      -280.3763
  20   1.0000     -10.297947      -280.2214
  21   1.0000     -10.297321      -280.2044
  22   1.0000     -10.297163      -280.2001
  23   1.0000     -10.295502      -280.1548
  24   1.0000     -10.295291      -280.1491
  25   1.0000     -10.292541      -280.0743
  26   1.0000     -10.292091      -280.0620
  27   1.0000     -10.292006      -280.0597
  28   1.0000     -10.290928      -280.0304
  29   1.0000     -10.288964      -279.9769
  30   1.0000      -8.109209      -220.6628
  31   1.0000      -6.956671      -189.3006
  32   1.0000      -6.063181      -164.9875
  33   1.0000      -6.059377      -164.8840
  34   1.0000      -6.055735      -164.7849
  35   1.0000      -1.302553       -35.4443
  36   1.0000      -1.257513       -34.2187
  37   1.0000      -1.254977       -34.1497
  38   1.0000      -1.206192       -32.8222
  39   1.0000      -1.115874       -30.3645
  40   1.0000      -0.997117       -27.1329
  41   1.0000      -0.984661       -26.7940
  42   1.0000      -0.980197       -26.6725
  43   1.0000      -0.942495       -25.6466
  44   1.0000      -0.924393       -25.1540
  45   1.0000      -0.910300       -24.7705
  46   1.0000      -0.894416       -24.3383
  47   1.0000      -0.877935       -23.8898
  48   1.0000      -0.866978       -23.5917
  49   1.0000      -0.861996       -23.4561
  50   1.0000      -0.855734       -23.2857
  51   1.0000      -0.842401       -22.9229
  52   1.0000      -0.786992       -21.4151
  53   1.0000      -0.761222       -20.7139
  54   1.0000      -0.741488       -20.1769
  55   1.0000      -0.735163       -20.0048
  56   1.0000      -0.720250       -19.5990
  57   1.0000      -0.716126       -19.4868
  58   1.0000      -0.709555       -19.3080
  59   1.0000      -0.696708       -18.9584
  60   1.0000      -0.675774       -18.3888
  61   1.0000      -0.671113       -18.2619
  62   1.0000      -0.653603       -17.7855
  63   1.0000      -0.639414       -17.3993
  64   1.0000      -0.622608       -16.9420
  65   1.0000      -0.619293       -16.8518
  66   1.0000      -0.615855       -16.7583
  67   1.0000      -0.597769       -16.2661
  68   1.0000      -0.594945       -16.1893
  69   1.0000      -0.585962       -15.9448
  70   1.0000      -0.580316       -15.7912
  71   1.0000      -0.574748       -15.6397
  72   1.0000      -0.567480       -15.4419
  73   1.0000      -0.561182       -15.2705
  74   1.0000      -0.557348       -15.1662
  75   1.0000      -0.554385       -15.0856
  76   1.0000      -0.542085       -14.7509
  77   1.0000      -0.540405       -14.7052
  78   1.0000      -0.531931       -14.4746
  79   1.0000      -0.530496       -14.4355
  80   1.0000      -0.521181       -14.1821
  81   1.0000      -0.519543       -14.1375
  82   1.0000      -0.516885       -14.0651
  83   1.0000      -0.514258       -13.9937
  84   1.0000      -0.506287       -13.7768
  85   1.0000      -0.500104       -13.6085
  86   1.0000      -0.495202       -13.4751
  87   1.0000      -0.492972       -13.4145
  88   1.0000      -0.491900       -13.3853
  89   1.0000      -0.483590       -13.1592
  90   1.0000      -0.478582       -13.0229
  91   1.0000      -0.474274       -12.9057
  92   1.0000      -0.471331       -12.8256
  93   1.0000      -0.463875       -12.6227
  94   1.0000      -0.456943       -12.4340
  95   1.0000      -0.456412       -12.4196
  96   1.0000      -0.450491       -12.2585
  97   1.0000      -0.449383       -12.2283
  98   1.0000      -0.441568       -12.0157
  99   1.0000      -0.439488       -11.9591
 100   1.0000      -0.431140       -11.7319
 101   1.0000      -0.429409       -11.6848
 102   1.0000      -0.425729       -11.5847
 103   1.0000      -0.419471       -11.4144
 104   1.0000      -0.386437       -10.5155
 105   1.0000      -0.384728       -10.4690
 106   1.0000      -0.358610        -9.7583
 107   1.0000      -0.354482        -9.6459
 108   1.0000      -0.350779        -9.5452
 109   1.0000      -0.338510        -9.2113
 110   1.0000      -0.336854        -9.1663
 111   1.0000      -0.305441        -8.3115
 112   0.0000      -0.094134        -2.5615
 113   0.0000      -0.034576        -0.9409
 114   0.0000       0.018649         0.5075
 115   0.0000       0.049482         1.3465
 116   0.0000       0.062101         1.6899

MULLIKEN ATOMIC CHARGES AND SPIN POPULATIONS
--------------------------------------------
   0 C :   -0.163597    0.141905
   1 C :    0.090567   -0.148461
   2 C :   -0.146689    0.144539
   3 C :   -0.149220   -0.088358
   4 C :   -0.141140    0.147928
   5 C :   -0.145377   -0.088261
   6 C :   -0.234124    0.535660
   7 C :    0.273613    0.220534
   8 C :    0.140647    0.263635
   9 S :    0.324310   -0.064904
  10 C :    0.016122    0.284812
  11 N :   -0.422074   -0.063191
  12 C :    0.067491   -0.090449
  13 C :   -0.105522    0.108160
  14 C :   -0.150109   -0.068422
  15 C :   -0.118991    0.115679
  16 C :   -0.151283   -0.067119
  17 C :   -0.148486    0.106371
  18 O :   -0.481068    0.150110
  19 H :    0.147211   -0.006308
  20 H :    0.146968   -0.005739
  21 H :    0.172631   -0.004105
  22 H :    0.164467    0.002322
  23 H :    0.164298   -0.004814
  24 H :    0.162415    0.002374
  25 H :    0.171650   -0.004333
  26 H :    0.148564   -0.005731
  27 H :    0.145890    0.003131
  28 H :    0.148539    0.003150
  29 H :    0.174199   -0.020585
  30 B :    0.801655   -0.001306
  31 F :   -0.359766    0.000217
  32 F :   -0.377081   -0.000116
  33 F :   -0.372924    0.003496
  34 C :   -0.135298    0.405886
  35 C :   -0.276076   -0.023896
  36 H :    0.183314    0.003280
  37 H :    0.169246    0.004603
  38 H :    0.153307   -0.017447
  39 C :    0.067294   -0.116452
  40 C :   -0.159260    0.135327
  41 C :   -0.135656    0.139483
  42 C :   -0.140188   -0.086163
  43 H :    0.154470   -0.005452
  44 C :   -0.140825   -0.087224
  45 H :    0.141216   -0.005898
  46 C :   -0.127726    0.152515
  47 H :    0.152024    0.003028
  48 H :    0.149832    0.003080
  49 H :    0.150544   -0.006493
Sum of atomic charges         :   -0.0000000

LOEWDIN ATOMIC CHARGES AND SPIN POPULATIONS
-------------------------------------------
   0 C :   -0.077235    0.110136
   1 C :   -0.030990   -0.082794
   2 C :   -0.083865    0.111649
   3 C :   -0.083288   -0.058703
   4 C :   -0.083320    0.116115
   5 C :   -0.084120   -0.058794
   6 C :   -0.063334    0.449369
   7 C :    0.032999    0.222549
   8 C :   -0.005250    0.243823
   9 S :    0.347727   -0.046413
  10 C :   -0.033441    0.241953
  11 N :   -0.132367   -0.032156
  12 C :   -0.045721   -0.050861
  13 C :   -0.035174    0.085126
  14 C :   -0.078035   -0.045771
  15 C :   -0.049404    0.091286
  16 C :   -0.076509   -0.044899
  17 C :   -0.050387    0.083296
  18 O :   -0.079670    0.155176
  19 H :    0.089072   -0.001783
  20 H :    0.089287   -0.001867
  21 H :    0.100579   -0.001407
  22 H :    0.097531    0.000630
  23 H :    0.097272   -0.001433
  24 H :    0.096600    0.000649
  25 H :    0.099090   -0.001439
  26 H :    0.088139   -0.001603
  27 H :    0.089022    0.000839
  28 H :    0.090261    0.000872
  29 H :    0.102915   -0.003994
  30 B :   -0.174033    0.001504
  31 F :   -0.111775    0.000170
  32 F :   -0.123705   -0.000191
  33 F :   -0.128702    0.003566
  34 C :   -0.065544    0.339936
  35 C :   -0.076011    0.017885
  36 H :    0.103427    0.004125
  37 H :    0.093806    0.004611
  38 H :    0.091426   -0.004130
  39 C :   -0.036984   -0.063126
  40 C :   -0.066239    0.106100
  41 C :   -0.062878    0.108455
  42 C :   -0.081835   -0.057307
  43 H :    0.092395   -0.001807
  44 C :   -0.079339   -0.057686
  45 H :    0.088657   -0.001672
  46 C :   -0.064935    0.120233
  47 H :    0.091831    0.000823
  48 H :    0.090933    0.000833
  49 H :    0.091121   -0.001873

  Mayer bond orders larger than 0.100000
B(  0-C ,  1-C ) :   1.3601 B(  0-C ,  5-C ) :   1.4583 B(  0-C , 20-H ) :   0.9405
B(  1-C ,  2-C ) :   1.3782 B(  1-C ,  6-C ) :   1.1052 B(  2-C ,  3-C ) :   1.4528
B(  2-C , 26-H ) :   0.9212 B(  3-C ,  4-C ) :   1.4272 B(  3-C , 27-H ) :   0.9443
B(  4-C ,  5-C ) :   1.4277 B(  4-C , 19-H ) :   0.9444 B(  5-C , 28-H ) :   0.9430
B(  6-C ,  7-C ) :   1.0912 B(  6-C , 29-H ) :   0.9269 B(  6-C , 35-C ) :   0.2786
B(  7-C ,  8-C ) :   1.1282 B(  7-C , 11-N ) :   1.3438 B(  8-C ,  9-S ) :   1.1065
B(  8-C , 18-O ) :   1.2926 B(  9-S , 10-C ) :   1.0512 B( 10-C , 11-N ) :   1.4193
B( 10-C , 12-C ) :   1.0756 B( 12-C , 13-C ) :   1.3742 B( 12-C , 17-C ) :   1.3603
B( 13-C , 14-C ) :   1.4555 B( 13-C , 25-H ) :   0.9275 B( 14-C , 15-C ) :   1.4226
B( 14-C , 24-H ) :   0.9395 B( 15-C , 16-C ) :   1.4287 B( 15-C , 23-H ) :   0.9402
B( 16-C , 17-C ) :   1.4630 B( 16-C , 22-H ) :   0.9388 B( 17-C , 21-H ) :   0.9278
B( 18-O , 30-B ) :   0.5910 B( 30-B , 31-F ) :   1.0287 B( 30-B , 32-F ) :   0.9145
B( 30-B , 33-F ) :   0.9469 B( 34-C , 35-C ) :   1.4705 B( 34-C , 38-H ) :   0.9186
B( 34-C , 39-C ) :   1.1419 B( 35-C , 36-H ) :   0.9389 B( 35-C , 37-H ) :   0.9368
B( 39-C , 40-C ) :   1.3488 B( 39-C , 41-C ) :   1.3572 B( 40-C , 42-C ) :   1.4528
B( 40-C , 43-H ) :   0.9368 B( 41-C , 44-C ) :   1.4710 B( 41-C , 45-H ) :   0.9334
B( 42-C , 46-C ) :   1.4273 B( 42-C , 47-H ) :   0.9423 B( 44-C , 46-C ) :   1.4156
B( 44-C , 48-H ) :   0.9425 B( 46-C , 49-H ) :   0.9429

Dispersion correction           -0.034128337
FINAL SINGLE POINT ENERGY     -1778.298989312545

DIPOLE MOMENT
-------------
                                X             Y             Z
Electronic contribution:     -5.35024     -36.32010      -7.23950
Nuclear contribution   :      7.63260      40.83979       7.32932
                        -----------------------------------------
Total Dipole Moment    :      2.28236       4.51969       0.08982
                        -----------------------------------------
Magnitude (a.u.)       :      5.06407
Magnitude (Debye)      :     12.87185

Dispersion correction in the Hessian             ... done   (      1.1 sec)

VIBRATIONAL FREQUENCIES
-----------------------

Scaling factor for frequencies =  1.000000000  (already applied!)

   0:         0.00 cm**-1
   1:         0.00 cm**-1
   2:         0.00 cm**-1
   3:         0.00 cm**-1
   4:         0.00 cm**-1
   5:         0.00 cm**-1
   6:      -462.02 cm**-1 ***imaginary mode***
   7:        17.60 cm**-1
   8:        31.18 cm**-1
   9:        34.10 cm**-1
  10:        37.88 cm**-1
  11:        45.68 cm**-1
  12:        49.02 cm**-1
  13:        58.02 cm**-1
  14:        66.74 cm**-1
  15:        75.45 cm**-1
  16:        76.44 cm**-1
  17:        92.83 cm**-1
  18:       106.01 cm**-1
  19:       110.75 cm**-1
  20:       156.14 cm**-1
  21:       159.50 cm**-1
  22:       175.42 cm**-1
  23:       185.93 cm**-1
  24:       221.19 cm**-1
  25:       241.43 cm**-1
  26:       248.60 cm**-1
  27:       255.60 cm**-1
  28:       283.92 cm**-1
  29:       330.03 cm**-1
  30:       339.41 cm**-1
  31:       350.74 cm**-1
  32:       357.96 cm**-1
  33:       406.76 cm**-1
  34:       415.15 cm**-1
  35:       416.74 cm**-1
  36:       419.67 cm**-1
  37:       443.26 cm**-1
  38:       451.16 cm**-1
  39:       463.84 cm**-1
  40:       473.28 cm**-1
  41:       502.97 cm**-1
  42:       509.57 cm**-1
  43:       518.28 cm**-1
  44:       559.91 cm**-1
  45:       587.35 cm**-1
  46:       591.66 cm**-1
  47:       615.17 cm**-1
  48:       617.12 cm**-1
  49:       629.96 cm**-1
  50:       631.03 cm**-1
  51:       632.52 cm**-1
  52:       678.78 cm**-1
  53:       686.14 cm**-1
  54:       696.20 cm**-1
  55:       697.87 cm**-1
  56:       703.68 cm**-1
  57:       712.83 cm**-1
  58:       741.66 cm**-1
  59:       758.80 cm**-1
  60:       784.15 cm**-1
  61:       790.74 cm**-1
  62:       795.34 cm**-1
  63:       816.63 cm**-1
  64:       822.68 cm**-1
  65:       832.50 cm**-1
  66:       858.46 cm**-1
  67:       866.73 cm**-1
  68:       869.72 cm**-1
  69:       874.37 cm**-1
  70:       881.77 cm**-1
  71:       949.73 cm**-1
  72:       953.86 cm**-1
  73:       965.02 cm**-1
  74:       972.42 cm**-1
  75:       985.86 cm**-1
  76:       992.73 cm**-1
  77:      1007.79 cm**-1
  78:      1010.14 cm**-1
  79:      1012.68 cm**-1
  80:      1018.29 cm**-1
  81:      1018.68 cm**-1
  82:      1021.48 cm**-1
  83:      1026.14 cm**-1
  84:      1029.05 cm**-1
  85:      1040.16 cm**-1
  86:      1055.53 cm**-1
  87:      1057.47 cm**-1
  88:      1066.68 cm**-1
  89:      1074.24 cm**-1
  90:      1074.40 cm**-1
  91:      1122.68 cm**-1
  92:      1127.53 cm**-1
  93:      1130.71 cm**-1
  94:      1166.48 cm**-1
  95:      1180.62 cm**-1
  96:      1181.98 cm**-1
  97:      1184.64 cm**-1
  98:      1200.59 cm**-1
  99:      1205.44 cm**-1
 100:      1208.53 cm**-1
 101:      1229.93 cm**-1
 102:      1232.87 cm**-1
 103:      1238.82 cm**-1
 104:      1253.88 cm**-1
 105:      1289.50 cm**-1
 106:      1300.12 cm**-1
 107:      1346.29 cm**-1
 108:      1348.50 cm**-1
 109:      1351.67 cm**-1
 110:      1366.77 cm**-1
 111:      1367.92 cm**-1
 112:      1370.63 cm**-1
 113:      1398.64 cm**-1
 114:      1451.38 cm**-1
 115:      1471.27 cm**-1
 116:      1489.19 cm**-1
 117:      1500.45 cm**-1
 118:      1511.26 cm**-1
 119:      1521.94 cm**-1
 120:      1541.08 cm**-1
 121:      1543.34 cm**-1
 122:      1554.03 cm**-1
 123:      1588.08 cm**-1
 124:      1613.36 cm**-1
 125:      1655.89 cm**-1
 126:      1656.98 cm**-1
 127:      1664.29 cm**-1
 128:      1675.47 cm**-1
 129:      1677.75 cm**-1
 130:      1682.26 cm**-1
 131:      3196.41 cm**-1
 132:      3204.47 cm**-1
 133:      3207.71 cm**-1
 134:      3212.20 cm**-1
 135:      3215.27 cm**-1
 136:      3217.16 cm**-1
 137:      3217.42 cm**-1
 138:      3224.36 cm**-1
 139:      3224.99 cm**-1
 140:      3225.03 cm**-1
 141:      3225.33 cm**-1
 142:      3233.04 cm**-1
 143:      3235.95 cm**-1
 144:      3237.29 cm**-1
 145:      3241.23 cm**-1
 146:      3245.18 cm**-1
 147:      3252.84 cm**-1
 148:      3260.42 cm**-1
 149:      3298.51 cm**-1

--------------------------
THERMOCHEMISTRY AT 298.15K
--------------------------

Temperature         ... 298.15 K
Pressure            ... 1.00 atm
Total Mass          ... 437.29 AMU

Throughout the following assumptions are being made:
  (1) The electronic state is orbitally nondegenerate
      but the spin degeneracy is treated
  (2) There are no thermally accessible electronically excited states
  (3) Hindered rotations indicated by low frequency modes are not
      treated as such but are treated as vibrations and this may
      cause some error
  (4) All equations used are the standard statistical mechanics
      equations for an ideal gas
  (5) All vibrations are strictly harmonic

freq.      17.60  E(vib)   ...       0.57
freq.      31.18  E(vib)   ...       0.55
freq.      34.10  E(vib)   ...       0.55
freq.      37.88  E(vib)   ...       0.54
freq.      45.68  E(vib)   ...       0.53
freq.      49.02  E(vib)   ...       0.53
freq.      58.02  E(vib)   ...       0.51
freq.      66.74  E(vib)   ...       0.50
freq.      75.45  E(vib)   ...       0.49
freq.      76.44  E(vib)   ...       0.49
freq.      92.83  E(vib)   ...       0.47
freq.     106.01  E(vib)   ...       0.45
freq.     110.75  E(vib)   ...       0.45
freq.     156.14  E(vib)   ...       0.40
freq.     159.50  E(vib)   ...       0.39
freq.     175.42  E(vib)   ...       0.38
freq.     185.93  E(vib)   ...       0.37
freq.     221.19  E(vib)   ...       0.33
freq.     241.43  E(vib)   ...       0.31
freq.     248.60  E(vib)   ...       0.31
freq.     255.60  E(vib)   ...       0.30
freq.     283.92  E(vib)   ...       0.28
freq.     330.03  E(vib)   ...       0.24
freq.     339.41  E(vib)   ...       0.23
freq.     350.74  E(vib)   ...       0.23
freq.     357.96  E(vib)   ...       0.22
freq.     406.76  E(vib)   ...       0.19
freq.     415.15  E(vib)   ...       0.19
freq.     416.74  E(vib)   ...       0.18
freq.     419.67  E(vib)   ...       0.18
freq.     443.26  E(vib)   ...       0.17
freq.     451.16  E(vib)   ...       0.16
freq.     463.84  E(vib)   ...       0.16
freq.     473.28  E(vib)   ...       0.15
freq.     502.97  E(vib)   ...       0.14
freq.     509.57  E(vib)   ...       0.14
freq.     518.28  E(vib)   ...       0.13
freq.     559.91  E(vib)   ...       0.12
freq.     587.35  E(vib)   ...       0.10
freq.     591.66  E(vib)   ...       0.10
freq.     615.17  E(vib)   ...       0.10
freq.     617.12  E(vib)   ...       0.09
freq.     629.96  E(vib)   ...       0.09
freq.     631.03  E(vib)   ...       0.09
freq.     632.52  E(vib)   ...       0.09
freq.     678.78  E(vib)   ...       0.08
freq.     686.14  E(vib)   ...       0.07
freq.     696.20  E(vib)   ...       0.07
freq.     697.87  E(vib)   ...       0.07
freq.     703.68  E(vib)   ...       0.07
freq.     712.83  E(vib)   ...       0.07
freq.     741.66  E(vib)   ...       0.06
freq.     758.80  E(vib)   ...       0.06
freq.     784.15  E(vib)   ...       0.05
freq.     790.74  E(vib)   ...       0.05
freq.     795.34  E(vib)   ...       0.05
freq.     816.63  E(vib)   ...       0.05
freq.     822.68  E(vib)   ...       0.05
freq.     832.50  E(vib)   ...       0.04
freq.     858.46  E(vib)   ...       0.04
freq.     866.73  E(vib)   ...       0.04
freq.     869.72  E(vib)   ...       0.04
freq.     874.37  E(vib)   ...       0.04
freq.     881.77  E(vib)   ...       0.04
freq.     949.73  E(vib)   ...       0.03
freq.     953.86  E(vib)   ...       0.03
freq.     965.02  E(vib)   ...       0.03
freq.     972.42  E(vib)   ...       0.03
freq.     985.86  E(vib)   ...       0.02
freq.     992.73  E(vib)   ...       0.02
freq.    1007.79  E(vib)   ...       0.02
freq.    1010.14  E(vib)   ...       0.02
freq.    1012.68  E(vib)   ...       0.02
freq.    1018.29  E(vib)   ...       0.02
freq.    1018.68  E(vib)   ...       0.02
freq.    1021.48  E(vib)   ...       0.02
freq.    1026.14  E(vib)   ...       0.02
freq.    1029.05  E(vib)   ...       0.02
freq.    1040.16  E(vib)   ...       0.02
freq.    1055.53  E(vib)   ...       0.02
freq.    1057.47  E(vib)   ...       0.02
freq.    1066.68  E(vib)   ...       0.02
freq.    1074.24  E(vib)   ...       0.02
freq.    1074.40  E(vib)   ...       0.02
freq.    1122.68  E(vib)   ...       0.01
freq.    1127.53  E(vib)   ...       0.01
freq.    1130.71  E(vib)   ...       0.01
freq.    1166.48  E(vib)   ...       0.01
freq.    1180.62  E(vib)   ...       0.01
freq.    1181.98  E(vib)   ...       0.01
freq.    1184.64  E(vib)   ...       0.01
freq.    1200.59  E(vib)   ...       0.01
freq.    1205.44  E(vib)   ...       0.01
freq.    1208.53  E(vib)   ...       0.01
freq.    1229.93  E(vib)   ...       0.01
freq.    1232.87  E(vib)   ...       0.01
freq.    1238.82  E(vib)   ...       0.01
freq.    1253.88  E(vib)   ...       0.01
freq.    1289.50  E(vib)   ...       0.01
freq.    1300.12  E(vib)   ...       0.01
freq.    1346.29  E(vib)   ...       0.01
freq.    1348.50  E(vib)   ...       0.01
freq.    1351.67  E(vib)   ...       0.01
freq.    1366.77  E(vib)   ...       0.01
freq.    1367.92  E(vib)   ...       0.01
freq.    1370.63  E(vib)   ...       0.01
freq.    1398.64  E(vib)   ...       0.00
freq.    1451.38  E(vib)   ...       0.00
freq.    1471.27  E(vib)   ...       0.00
freq.    1489.19  E(vib)   ...       0.00
freq.    1500.45  E(vib)   ...       0.00
freq.    1511.26  E(vib)   ...       0.00
freq.    1521.94  E(vib)   ...       0.00
freq.    1541.08  E(vib)   ...       0.00
freq.    1543.34  E(vib)   ...       0.00
freq.    1554.03  E(vib)   ...       0.00
freq.    1588.08  E(vib)   ...       0.00
freq.    1613.36  E(vib)   ...       0.00
freq.    1655.89  E(vib)   ...       0.00
freq.    1656.98  E(vib)   ...       0.00
freq.    1664.29  E(vib)   ...       0.00
freq.    1675.47  E(vib)   ...       0.00
freq.    1677.75  E(vib)   ...       0.00
freq.    1682.26  E(vib)   ...       0.00
freq.    3196.41  E(vib)   ...       0.00
freq.    3204.47  E(vib)   ...       0.00
freq.    3207.71  E(vib)   ...       0.00
freq.    3212.20  E(vib)   ...       0.00
freq.    3215.27  E(vib)   ...       0.00
freq.    3217.16  E(vib)   ...       0.00
freq.    3217.42  E(vib)   ...       0.00
freq.    3224.36  E(vib)   ...       0.00
freq.    3224.99  E(vib)   ...       0.00
freq.    3225.03  E(vib)   ...       0.00
freq.    3225.33  E(vib)   ...       0.00
freq.    3233.04  E(vib)   ...       0.00
freq.    3235.95  E(vib)   ...       0.00
freq.    3237.29  E(vib)   ...       0.00
freq.    3241.23  E(vib)   ...       0.00
freq.    3245.18  E(vib)   ...       0.00
freq.    3252.84  E(vib)   ...       0.00
freq.    3260.42  E(vib)   ...       0.00
freq.    3298.51  E(vib)   ...       0.00

Rotational constants in cm-1:     0.005050     0.004630     0.003106

                             ****ORCA TERMINATED NORMALLY****
TOTAL RUN TIME: 0 days 4 hours 29 minutes 31 seconds 79 msec
