 Gaussian 16, Revision C.01,
 Gaussian 16:  ES64L-G16RevC.01  3-Jul-2019

 --------------------------------------------------------------------
 # nmr=giao cc-pvtz scrf=(solvent=chloroform,pcm) pbe1pbe g09defaults
 --------------------------------------------------------------------

 -------------------
 Title Card Required
 -------------------
 Symbolic Z-matrix:
 Charge =  0 Multiplicity = 1

                         Standard orientation:
 ---------------------------------------------------------------------
 Center     Atomic      Atomic             Coordinates (Angstroms)
 Number     Number       Type             X           Y           Z
 ---------------------------------------------------------------------
      1          6           0       -0.659788   -0.019580    0.000000
      2          1           0       -1.085929    0.983797   -0.000001
      3          1           0       -1.025381   -0.544538    0.889411
      4          1           0       -1.025380   -0.544540   -0.889410
      5          8           0        0.745410    0.122210    0.000000
      6          1           0        1.132133   -0.754921    0.000000
 ---------------------------------------------------------------------

 SCF Done:  E(RPBE1PBE) =  -115.636937641     A.U. after    9 cycles

      1  C    Isotropic =   136.4123   Anisotropy =    76.5152

      2  H    Isotropic =    28.1863   Anisotropy =     7.5535

      3  H    Isotropic =    27.9655   Anisotropy =     8.4638

      4  H    Isotropic =    27.9655   Anisotropy =     8.4638

      5  O    Isotropic =   337.7065   Anisotropy =    89.3036

      6  H    Isotropic =    31.6324   Anisotropy =    19.4642

 The electronic state is 1-A.
 Alpha  occ. eigenvalues --  -19.20384 -10.25826  -1.04879  -0.70026  -0.52278
 Alpha  occ. eigenvalues --   -0.45152  -0.43953  -0.35010  -0.28899
 Alpha virt. eigenvalues --    0.05034   0.08653   0.12864   0.13105   0.17373
 Alpha virt. eigenvalues --    0.27689   0.28636   0.36310   0.40426   0.46054
 Alpha virt. eigenvalues --    0.47374   0.47879   0.51614   0.54380   0.54624

 Mulliken charges:
               1
     1  C   -0.077620
     2  H    0.098567
     3  H    0.064283
     4  H    0.064283
     5  O   -0.375105
     6  H    0.225592
 Sum of Mulliken charges =   0.00000

 Dipole moment (field-independent basis, Debye):
    X=             -0.8180    Y=             -1.6170    Z=              0.0000  Tot=              1.8121
 Quadrupole moment (field-independent basis, Debye-Ang):
   XX=            -12.6783   YY=            -12.0476   ZZ=            -13.6449
   XY=             -2.2423   XZ=              0.0000   YZ=              0.0000

 Normal termination of Gaussian 16 at Tue Aug 24 16:01:53 2021.
